<?xml version="1.0" encoding="UTF-8"?>

<!-- generated on 2025-11-22 23:18:39 by Eclipse SUMO GUI Version 1.19.0
<configuration xmlns:xsi="http://www.w3.org/2001/XMLSchema-instance" xsi:noNamespaceSchemaLocation="http://sumo.dlr.de/xsd/sumoConfiguration.xsd">

    <input>
        <net-file value="f:\论文4\调试版本\V1\scenario\net.net.xml"/>
        <route-files value="f:\论文4\调试版本\V1\scenario\rou.rou.xml"/>
        <additional-files value="f:\论文4\调试版本\V1\scenario\vTypeDistributions.add.xml,f:\论文4\调试版本\V1\scenario\det.add.xml"/>
    </input>

    <output>
        <fcd-output value="f:\论文4\调试版本\V1\scenario\fcdTrajectories.xml"/>
        <fcd-output.acceleration value="true"/>
        <lanechange-output.xy value="true"/>
    </output>

    <time>
        <begin value="0"/>
        <end value="2100"/>
        <step-length value="0.1"/>
    </time>

    <processing>
        <collision.action value="none"/>
        <collision.stoptime value="1000"/>
        <collision.mingap-factor value="0.1"/>
    </processing>

    <report>
        <xml-validation value="never"/>
        <no-warnings value="true"/>
    </report>

    <fcd_device>
        <device.fcd.period value="1.0"/>
    </fcd_device>

    <traci_server>
        <remote-port value="8813"/>
    </traci_server>

    <random_number>
        <seed value="9497"/>
    </random_number>

    <gui_only>
        <gui-settings-file value="f:\论文4\调试版本\V1\scenario\viewsettings.xml"/>
        <quit-on-end value="true"/>
    </gui_only>

</configuration>
-->

<fcd-export xmlns:xsi="http://www.w3.org/2001/XMLSchema-instance" xsi:noNamespaceSchemaLocation="http://sumo.dlr.de/xsd/fcd_file.xsd">
    <timestep time="0.00">
        <vehicle id="cav_flow.0" x="5.10" y="-9.38" angle="90.00" type="cav798" speed="31.92" pos="5.10" lane="1_0" slope="0.00" acceleration="0.00"/>
        <vehicle id="hv_flow.0" x="5.10" y="-5.62" angle="90.00" type="hv844" speed="22.73" pos="5.10" lane="1_1" slope="0.00" acceleration="0.00"/>
    </timestep>
    <timestep time="1.00">
        <vehicle id="cav_flow.0" x="37.02" y="-9.38" angle="90.00" type="cav798" speed="31.92" pos="37.02" lane="1_0" slope="0.00" acceleration="0.00"/>
        <vehicle id="hv_flow.0" x="27.83" y="-5.62" angle="90.00" type="hv844" speed="22.73" pos="27.83" lane="1_1" slope="0.00" acceleration="-0.00"/>
    </timestep>
    <timestep time="2.00">
        <vehicle id="cav_flow.0" x="69.33" y="-5.62" angle="90.00" type="cav798" speed="32.69" pos="69.33" lane="1_1" slope="0.00" acceleration="0.85"/>
        <vehicle id="hv_flow.0" x="50.42" y="-5.62" angle="90.00" type="hv844" speed="22.53" pos="50.42" lane="1_1" slope="0.00" acceleration="-0.01"/>
        <vehicle id="hv_flow.1" x="11.39" y="-1.88" angle="90.00" type="hv667" speed="31.43" pos="11.39" lane="1_2" slope="0.00" acceleration="-0.00"/>
    </timestep>
    <timestep time="3.00">
        <vehicle id="cav_flow.0" x="102.49" y="-5.62" angle="90.00" type="cav798" speed="33.54" pos="102.49" lane="1_1" slope="0.00" acceleration="0.85"/>
        <vehicle id="hv_flow.0" x="72.96" y="-5.62" angle="90.00" type="hv844" speed="22.57" pos="72.96" lane="1_1" slope="0.00" acceleration="0.05"/>
        <vehicle id="hv_flow.1" x="42.82" y="-1.88" angle="90.00" type="hv667" speed="31.43" pos="42.82" lane="1_2" slope="0.00" acceleration="-0.00"/>
    </timestep>
    <timestep time="4.00">
        <vehicle id="cav_flow.0" x="136.50" y="-1.88" angle="90.00" type="cav798" speed="34.39" pos="136.50" lane="1_2" slope="0.00" acceleration="0.85"/>
        <vehicle id="cav_flow.1" x="15.38" y="-9.38" angle="90.00" type="cav188" speed="25.71" pos="15.38" lane="1_0" slope="0.00" acceleration="0.00"/>
        <vehicle id="hv_flow.0" x="95.56" y="-5.62" angle="90.00" type="hv844" speed="22.63" pos="95.56" lane="1_1" slope="0.00" acceleration="0.06"/>
        <vehicle id="hv_flow.1" x="74.23" y="-1.88" angle="90.00" type="hv667" speed="31.35" pos="74.23" lane="1_2" slope="0.00" acceleration="-0.18"/>
        <vehicle id="hv_flow.2" x="17.15" y="-5.62" angle="90.00" type="hv297" speed="29.96" pos="17.15" lane="1_1" slope="0.00" acceleration="-1.02"/>
    </timestep>
    <timestep time="5.00">
        <vehicle id="cav_flow.0" x="171.36" y="-1.88" angle="90.00" type="cav798" speed="35.24" pos="171.36" lane="1_2" slope="0.00" acceleration="0.85"/>
        <vehicle id="cav_flow.1" x="41.09" y="-9.38" angle="90.00" type="cav188" speed="25.71" pos="41.09" lane="1_0" slope="0.00" acceleration="0.00"/>
        <vehicle id="hv_flow.0" x="118.22" y="-5.62" angle="90.00" type="hv844" speed="22.67" pos="118.22" lane="1_1" slope="0.00" acceleration="0.03"/>
        <vehicle id="hv_flow.1" x="105.51" y="-1.88" angle="90.00" type="hv667" speed="31.24" pos="105.51" lane="1_2" slope="0.00" acceleration="-0.06"/>
        <vehicle id="hv_flow.2" x="46.59" y="-5.62" angle="90.00" type="hv297" speed="29.04" pos="46.59" lane="1_1" slope="0.00" acceleration="-0.85"/>
    </timestep>
    <timestep time="6.00">
        <vehicle id="cav_flow.0" x="207.06" y="-1.88" angle="90.00" type="cav798" speed="36.09" pos="207.06" lane="1_2" slope="0.00" acceleration="0.85"/>
        <vehicle id="cav_flow.1" x="66.80" y="-9.38" angle="90.00" type="cav188" speed="25.71" pos="66.80" lane="1_0" slope="0.00" acceleration="0.00"/>
        <vehicle id="hv_flow.0" x="140.90" y="-5.62" angle="90.00" type="hv844" speed="22.70" pos="140.90" lane="1_1" slope="0.00" acceleration="0.02"/>
        <vehicle id="hv_flow.1" x="136.73" y="-1.88" angle="90.00" type="hv667" speed="31.22" pos="136.73" lane="1_2" slope="0.00" acceleration="-0.00"/>
        <vehicle id="hv_flow.2" x="75.30" y="-1.88" angle="90.00" type="hv297" speed="28.81" pos="75.30" lane="1_2" slope="0.00" acceleration="1.06"/>
        <vehicle id="hv_flow.3" x="23.90" y="-1.88" angle="90.00" type="hv653" speed="31.00" pos="23.90" lane="1_2" slope="0.00" acceleration="-1.47"/>
    </timestep>
    <timestep time="7.00">
        <vehicle id="cav_flow.0" x="243.62" y="-1.88" angle="90.00" type="cav798" speed="36.94" pos="243.62" lane="1_2" slope="0.00" acceleration="0.85"/>
        <vehicle id="cav_flow.1" x="92.51" y="-9.38" angle="90.00" type="cav188" speed="25.71" pos="92.51" lane="1_0" slope="0.00" acceleration="0.00"/>
        <vehicle id="hv_flow.0" x="163.61" y="-5.62" angle="90.00" type="hv844" speed="22.71" pos="163.61" lane="1_1" slope="0.00" acceleration="0.01"/>
        <vehicle id="hv_flow.1" x="167.96" y="-1.88" angle="90.00" type="hv667" speed="31.23" pos="167.96" lane="1_2" slope="0.00" acceleration="0.02"/>
        <vehicle id="hv_flow.2" x="104.65" y="-1.88" angle="90.00" type="hv297" speed="29.76" pos="104.65" lane="1_2" slope="0.00" acceleration="0.86"/>
        <vehicle id="hv_flow.3" x="54.33" y="-1.88" angle="90.00" type="hv653" speed="30.11" pos="54.33" lane="1_2" slope="0.00" acceleration="-0.54"/>
    </timestep>
    <timestep time="8.00">
        <vehicle id="cav_flow.0" x="281.03" y="-1.88" angle="90.00" type="cav798" speed="37.79" pos="281.03" lane="1_2" slope="0.00" acceleration="0.85"/>
        <vehicle id="cav_flow.1" x="118.22" y="-9.38" angle="90.00" type="cav188" speed="25.71" pos="118.22" lane="1_0" slope="0.00" acceleration="0.00"/>
        <vehicle id="cav_flow.2" x="22.58" y="-9.38" angle="90.00" type="cav593" speed="21.86" pos="22.58" lane="1_0" slope="0.00" acceleration="0.00"/>
        <vehicle id="hv_flow.0" x="186.33" y="-5.62" angle="90.00" type="hv844" speed="22.72" pos="186.33" lane="1_1" slope="0.00" acceleration="0.01"/>
        <vehicle id="hv_flow.1" x="199.20" y="-1.88" angle="90.00" type="hv667" speed="31.26" pos="199.20" lane="1_2" slope="0.00" acceleration="0.02"/>
        <vehicle id="hv_flow.2" x="134.84" y="-1.88" angle="90.00" type="hv297" speed="30.52" pos="134.84" lane="1_2" slope="0.00" acceleration="0.67"/>
        <vehicle id="hv_flow.3" x="84.24" y="-1.88" angle="90.00" type="hv653" speed="29.80" pos="84.24" lane="1_2" slope="0.00" acceleration="-0.16"/>
        <vehicle id="hv_flow.4" x="32.48" y="-5.62" angle="90.00" type="hv726" speed="33.17" pos="32.48" lane="1_1" slope="0.00" acceleration="-2.89"/>
    </timestep>
    <timestep time="9.00">
        <vehicle id="cav_flow.0" x="319.29" y="-1.88" angle="90.00" type="cav798" speed="38.64" pos="319.29" lane="1_2" slope="0.00" acceleration="0.85"/>
        <vehicle id="cav_flow.1" x="143.93" y="-9.38" angle="90.00" type="cav188" speed="25.71" pos="143.93" lane="1_0" slope="0.00" acceleration="0.00"/>
        <vehicle id="cav_flow.2" x="44.58" y="-5.62" angle="90.00" type="cav593" speed="22.43" pos="44.58" lane="1_1" slope="0.00" acceleration="1.43"/>
        <vehicle id="hv_flow.0" x="209.05" y="-5.62" angle="90.00" type="hv844" speed="22.73" pos="209.05" lane="1_1" slope="0.00" acceleration="0.00"/>
        <vehicle id="hv_flow.1" x="230.47" y="-1.88" angle="90.00" type="hv667" speed="31.28" pos="230.47" lane="1_2" slope="0.00" acceleration="0.02"/>
        <vehicle id="hv_flow.2" x="165.69" y="-1.88" angle="90.00" type="hv297" speed="31.10" pos="165.69" lane="1_2" slope="0.00" acceleration="0.50"/>
        <vehicle id="hv_flow.3" x="114.01" y="-1.88" angle="90.00" type="hv653" speed="29.75" pos="114.01" lane="1_2" slope="0.00" acceleration="0.01"/>
        <vehicle id="hv_flow.4" x="64.73" y="-1.88" angle="90.00" type="hv726" speed="31.81" pos="64.73" lane="1_2" slope="0.00" acceleration="-0.75"/>
        <vehicle id="hv_flow.5" x="5.10" y="-1.88" angle="90.00" type="hv480" speed="33.31" pos="5.10" lane="1_2" slope="0.00" acceleration="0.00"/>
    </timestep>
    <timestep time="10.00">
        <vehicle id="cav_flow.0" x="358.39" y="-1.88" angle="90.00" type="cav798" speed="39.49" pos="358.39" lane="1_2" slope="0.00" acceleration="0.85"/>
        <vehicle id="cav_flow.1" x="169.64" y="-9.38" angle="90.00" type="cav188" speed="25.71" pos="169.64" lane="1_0" slope="0.00" acceleration="0.00"/>
        <vehicle id="cav_flow.2" x="67.78" y="-5.62" angle="90.00" type="cav593" speed="23.80" pos="67.78" lane="1_1" slope="0.00" acceleration="1.21"/>
        <vehicle id="hv_flow.0" x="231.78" y="-5.62" angle="90.00" type="hv844" speed="22.73" pos="231.78" lane="1_1" slope="0.00" acceleration="0.00"/>
        <vehicle id="hv_flow.1" x="261.75" y="-1.88" angle="90.00" type="hv667" speed="31.29" pos="261.75" lane="1_2" slope="0.00" acceleration="0.02"/>
        <vehicle id="hv_flow.2" x="197.03" y="-1.88" angle="90.00" type="hv297" speed="31.52" pos="197.03" lane="1_2" slope="0.00" acceleration="0.36"/>
        <vehicle id="hv_flow.3" x="143.78" y="-1.88" angle="90.00" type="hv653" speed="29.81" pos="143.78" lane="1_2" slope="0.00" acceleration="0.08"/>
        <vehicle id="hv_flow.4" x="96.22" y="-1.88" angle="90.00" type="hv726" speed="31.29" pos="96.22" lane="1_2" slope="0.00" acceleration="-0.37"/>
        <vehicle id="hv_flow.5" x="37.91" y="-1.88" angle="90.00" type="hv480" speed="32.43" pos="37.91" lane="1_2" slope="0.00" acceleration="-0.76"/>
    </timestep>
    <timestep time="11.00">
        <vehicle id="cav_flow.0" x="398.35" y="-1.88" angle="90.00" type="cav798" speed="40.34" pos="398.35" lane="1_2" slope="0.00" acceleration="0.85"/>
        <vehicle id="cav_flow.1" x="195.35" y="-9.38" angle="90.00" type="cav188" speed="25.71" pos="195.35" lane="1_0" slope="0.00" acceleration="0.00"/>
        <vehicle id="cav_flow.2" x="92.15" y="-5.62" angle="90.00" type="cav593" speed="24.78" pos="92.15" lane="1_1" slope="0.00" acceleration="0.81"/>
        <vehicle id="cav_flow.3" x="10.23" y="-9.38" angle="90.00" type="cav387" speed="25.65" pos="10.23" lane="1_0" slope="0.00" acceleration="0.00"/>
        <vehicle id="hv_flow.0" x="254.51" y="-5.62" angle="90.00" type="hv844" speed="22.73" pos="254.51" lane="1_1" slope="0.00" acceleration="0.00"/>
        <vehicle id="hv_flow.1" x="293.06" y="-1.88" angle="90.00" type="hv667" speed="31.31" pos="293.06" lane="1_2" slope="0.00" acceleration="0.01"/>
        <vehicle id="hv_flow.2" x="228.73" y="-1.88" angle="90.00" type="hv297" speed="31.81" pos="228.73" lane="1_2" slope="0.00" acceleration="0.24"/>
        <vehicle id="hv_flow.3" x="173.64" y="-1.88" angle="90.00" type="hv653" speed="29.91" pos="173.64" lane="1_2" slope="0.00" acceleration="0.11"/>
        <vehicle id="hv_flow.4" x="127.35" y="-1.88" angle="90.00" type="hv726" speed="31.03" pos="127.35" lane="1_2" slope="0.00" acceleration="-0.18"/>
        <vehicle id="hv_flow.5" x="69.97" y="-1.88" angle="90.00" type="hv480" speed="31.80" pos="69.97" lane="1_2" slope="0.00" acceleration="-0.54"/>
        <vehicle id="hv_flow.6" x="11.00" y="-5.62" angle="90.00" type="hv333" speed="29.45" pos="11.00" lane="1_1" slope="0.00" acceleration="-1.23"/>
    </timestep>
    <timestep time="12.00">
        <vehicle id="cav_flow.0" x="439.16" y="-1.88" angle="90.00" type="cav798" speed="41.19" pos="439.16" lane="1_2" slope="0.00" acceleration="0.85"/>
        <vehicle id="cav_flow.1" x="221.06" y="-9.38" angle="90.00" type="cav188" speed="25.71" pos="221.06" lane="1_0" slope="0.00" acceleration="0.00"/>
        <vehicle id="cav_flow.2" x="117.31" y="-5.62" angle="90.00" type="cav593" speed="25.43" pos="117.31" lane="1_1" slope="0.00" acceleration="0.54"/>
        <vehicle id="cav_flow.3" x="35.88" y="-9.38" angle="90.00" type="cav387" speed="25.65" pos="35.88" lane="1_0" slope="0.00" acceleration="0.00"/>
        <vehicle id="hv_flow.0" x="277.24" y="-5.62" angle="90.00" type="hv844" speed="22.73" pos="277.24" lane="1_1" slope="0.00" acceleration="0.00"/>
        <vehicle id="hv_flow.1" x="324.37" y="-1.88" angle="90.00" type="hv667" speed="31.32" pos="324.37" lane="1_2" slope="0.00" acceleration="0.01"/>
        <vehicle id="hv_flow.2" x="260.65" y="-1.88" angle="90.00" type="hv297" speed="32.01" pos="260.65" lane="1_2" slope="0.00" acceleration="0.16"/>
        <vehicle id="hv_flow.3" x="203.61" y="-1.88" angle="90.00" type="hv653" speed="30.02" pos="203.61" lane="1_2" slope="0.00" acceleration="0.11"/>
        <vehicle id="hv_flow.4" x="158.30" y="-1.88" angle="90.00" type="hv726" speed="30.90" pos="158.30" lane="1_2" slope="0.00" acceleration="-0.09"/>
        <vehicle id="hv_flow.5" x="101.51" y="-1.88" angle="90.00" type="hv480" speed="31.35" pos="101.51" lane="1_2" slope="0.00" acceleration="-0.37"/>
        <vehicle id="hv_flow.6" x="39.94" y="-5.62" angle="90.00" type="hv333" speed="28.62" pos="39.94" lane="1_1" slope="0.00" acceleration="-0.57"/>
    </timestep>
    <timestep time="13.00">
        <vehicle id="cav_flow.0" x="480.82" y="-1.88" angle="90.00" type="cav798" speed="42.04" pos="480.82" lane="1_2" slope="0.00" acceleration="0.85"/>
        <vehicle id="cav_flow.1" x="246.77" y="-9.38" angle="90.00" type="cav188" speed="25.71" pos="246.77" lane="1_0" slope="0.00" acceleration="0.00"/>
        <vehicle id="cav_flow.2" x="142.99" y="-5.62" angle="90.00" type="cav593" speed="25.86" pos="142.99" lane="1_1" slope="0.00" acceleration="0.36"/>
        <vehicle id="cav_flow.3" x="61.54" y="-9.38" angle="90.00" type="cav387" speed="25.65" pos="61.54" lane="1_0" slope="0.00" acceleration="0.00"/>
        <vehicle id="hv_flow.0" x="299.97" y="-5.62" angle="90.00" type="hv844" speed="22.73" pos="299.97" lane="1_1" slope="0.00" acceleration="0.00"/>
        <vehicle id="hv_flow.1" x="355.70" y="-1.88" angle="90.00" type="hv667" speed="31.34" pos="355.70" lane="1_2" slope="0.00" acceleration="0.01"/>
        <vehicle id="hv_flow.2" x="292.73" y="-1.88" angle="90.00" type="hv297" speed="32.12" pos="292.73" lane="1_2" slope="0.00" acceleration="0.09"/>
        <vehicle id="hv_flow.3" x="233.69" y="-1.88" angle="90.00" type="hv653" speed="30.13" pos="233.69" lane="1_2" slope="0.00" acceleration="0.11"/>
        <vehicle id="hv_flow.4" x="189.16" y="-1.88" angle="90.00" type="hv726" speed="30.84" pos="189.16" lane="1_2" slope="0.00" acceleration="-0.04"/>
        <vehicle id="hv_flow.5" x="132.69" y="-1.88" angle="90.00" type="hv480" speed="31.05" pos="132.69" lane="1_2" slope="0.00" acceleration="-0.24"/>
        <vehicle id="hv_flow.6" x="68.33" y="-5.62" angle="90.00" type="hv333" speed="28.23" pos="68.33" lane="1_1" slope="0.00" acceleration="-0.28"/>
        <vehicle id="hv_flow.7" x="18.67" y="-1.88" angle="90.00" type="hv556" speed="33.79" pos="18.67" lane="1_2" slope="0.00" acceleration="-0.93"/>
    </timestep>
    <timestep time="14.00">
        <vehicle id="cav_flow.0" x="523.24" y="-1.88" angle="90.00" type="cav798" speed="42.56" pos="523.24" lane="1_2" slope="0.00" acceleration="0.00"/>
        <vehicle id="cav_flow.1" x="272.48" y="-9.38" angle="90.00" type="cav188" speed="25.71" pos="272.48" lane="1_0" slope="0.00" acceleration="0.00"/>
        <vehicle id="cav_flow.2" x="169.02" y="-5.62" angle="90.00" type="cav593" speed="26.15" pos="169.02" lane="1_1" slope="0.00" acceleration="0.24"/>
        <vehicle id="cav_flow.3" x="87.19" y="-9.38" angle="90.00" type="cav387" speed="25.65" pos="87.19" lane="1_0" slope="0.00" acceleration="0.00"/>
        <vehicle id="hv_flow.0" x="322.71" y="-5.62" angle="90.00" type="hv844" speed="22.73" pos="322.71" lane="1_1" slope="0.00" acceleration="0.00"/>
        <vehicle id="hv_flow.1" x="387.04" y="-1.88" angle="90.00" type="hv667" speed="31.35" pos="387.04" lane="1_2" slope="0.00" acceleration="0.01"/>
        <vehicle id="hv_flow.2" x="324.89" y="-1.88" angle="90.00" type="hv297" speed="32.19" pos="324.89" lane="1_2" slope="0.00" acceleration="0.04"/>
        <vehicle id="hv_flow.3" x="263.88" y="-1.88" angle="90.00" type="hv653" speed="30.23" pos="263.88" lane="1_2" slope="0.00" acceleration="0.10"/>
        <vehicle id="hv_flow.4" x="219.99" y="-1.88" angle="90.00" type="hv726" speed="30.82" pos="219.99" lane="1_2" slope="0.00" acceleration="-0.02"/>
        <vehicle id="hv_flow.5" x="163.63" y="-1.88" angle="90.00" type="hv480" speed="30.86" pos="163.63" lane="1_2" slope="0.00" acceleration="-0.15"/>
        <vehicle id="hv_flow.6" x="96.44" y="-5.62" angle="90.00" type="hv333" speed="28.03" pos="96.44" lane="1_1" slope="0.00" acceleration="-0.14"/>
        <vehicle id="hv_flow.7" x="52.03" y="-1.88" angle="90.00" type="hv556" speed="33.04" pos="52.03" lane="1_2" slope="0.00" acceleration="-0.62"/>
    </timestep>
    <timestep time="15.00">
        <vehicle id="cav_flow.0" x="565.80" y="-1.88" angle="90.00" type="cav798" speed="42.56" pos="565.80" lane="1_2" slope="0.00" acceleration="0.00"/>
        <vehicle id="cav_flow.1" x="298.19" y="-9.38" angle="90.00" type="cav188" speed="25.71" pos="298.19" lane="1_0" slope="0.00" acceleration="0.00"/>
        <vehicle id="cav_flow.2" x="195.27" y="-5.62" angle="90.00" type="cav593" speed="26.34" pos="195.27" lane="1_1" slope="0.00" acceleration="0.16"/>
        <vehicle id="cav_flow.3" x="112.84" y="-9.38" angle="90.00" type="cav387" speed="25.65" pos="112.84" lane="1_0" slope="0.00" acceleration="0.00"/>
        <vehicle id="cav_flow.4" x="20.46" y="-9.38" angle="90.00" type="cav238" speed="25.60" pos="20.46" lane="1_0" slope="0.00" acceleration="0.00"/>
        <vehicle id="hv_flow.0" x="345.44" y="-5.62" angle="90.00" type="hv844" speed="22.73" pos="345.44" lane="1_1" slope="0.00" acceleration="0.00"/>
        <vehicle id="hv_flow.1" x="418.40" y="-1.88" angle="90.00" type="hv667" speed="31.36" pos="418.40" lane="1_2" slope="0.00" acceleration="0.01"/>
        <vehicle id="hv_flow.2" x="357.10" y="-1.88" angle="90.00" type="hv297" speed="32.21" pos="357.10" lane="1_2" slope="0.00" acceleration="0.01"/>
        <vehicle id="hv_flow.3" x="294.16" y="-1.88" angle="90.00" type="hv653" speed="30.32" pos="294.16" lane="1_2" slope="0.00" acceleration="0.08"/>
        <vehicle id="hv_flow.4" x="250.80" y="-1.88" angle="90.00" type="hv726" speed="30.81" pos="250.80" lane="1_2" slope="0.00" acceleration="-0.00"/>
        <vehicle id="hv_flow.5" x="194.42" y="-1.88" angle="90.00" type="hv480" speed="30.74" pos="194.42" lane="1_2" slope="0.00" acceleration="-0.09"/>
        <vehicle id="hv_flow.6" x="124.41" y="-5.62" angle="90.00" type="hv333" speed="27.93" pos="124.41" lane="1_1" slope="0.00" acceleration="-0.08"/>
        <vehicle id="hv_flow.7" x="84.78" y="-1.88" angle="90.00" type="hv556" speed="32.54" pos="84.78" lane="1_2" slope="0.00" acceleration="-0.42"/>
        <vehicle id="hv_flow.8" x="19.08" y="-5.62" angle="90.00" type="hv602" speed="23.31" pos="19.08" lane="1_1" slope="0.00" acceleration="-0.00"/>
    </timestep>
    <timestep time="16.00">
        <vehicle id="cav_flow.0" x="608.37" y="-1.88" angle="90.00" type="cav798" speed="42.56" pos="608.37" lane="1_2" slope="0.00" acceleration="0.00"/>
        <vehicle id="cav_flow.1" x="323.89" y="-9.38" angle="90.00" type="cav188" speed="25.61" pos="323.89" lane="1_0" slope="0.00" acceleration="-0.39"/>
        <vehicle id="cav_flow.2" x="221.69" y="-5.62" angle="90.00" type="cav593" speed="26.46" pos="221.69" lane="1_1" slope="0.00" acceleration="0.10"/>
        <vehicle id="cav_flow.3" x="138.49" y="-9.38" angle="90.00" type="cav387" speed="25.65" pos="138.49" lane="1_0" slope="0.00" acceleration="0.00"/>
        <vehicle id="cav_flow.4" x="46.06" y="-9.38" angle="90.00" type="cav238" speed="25.60" pos="46.06" lane="1_0" slope="0.00" acceleration="0.00"/>
        <vehicle id="hv_flow.0" x="368.17" y="-5.62" angle="90.00" type="hv844" speed="22.73" pos="368.17" lane="1_1" slope="0.00" acceleration="0.00"/>
        <vehicle id="hv_flow.1" x="449.76" y="-1.88" angle="90.00" type="hv667" speed="31.36" pos="449.76" lane="1_2" slope="0.00" acceleration="0.01"/>
        <vehicle id="hv_flow.2" x="389.30" y="-1.88" angle="90.00" type="hv297" speed="32.20" pos="389.30" lane="1_2" slope="0.00" acceleration="-0.01"/>
        <vehicle id="hv_flow.3" x="324.52" y="-1.88" angle="90.00" type="hv653" speed="30.40" pos="324.52" lane="1_2" slope="0.00" acceleration="0.07"/>
        <vehicle id="hv_flow.4" x="281.61" y="-1.88" angle="90.00" type="hv726" speed="30.81" pos="281.61" lane="1_2" slope="0.00" acceleration="0.00"/>
        <vehicle id="hv_flow.5" x="225.12" y="-1.88" angle="90.00" type="hv480" speed="30.67" pos="225.12" lane="1_2" slope="0.00" acceleration="-0.05"/>
        <vehicle id="hv_flow.6" x="152.30" y="-5.62" angle="90.00" type="hv333" speed="27.87" pos="152.30" lane="1_1" slope="0.00" acceleration="-0.05"/>
        <vehicle id="hv_flow.7" x="117.13" y="-1.88" angle="90.00" type="hv556" speed="32.20" pos="117.13" lane="1_2" slope="0.00" acceleration="-0.29"/>
        <vehicle id="hv_flow.8" x="42.39" y="-5.62" angle="90.00" type="hv602" speed="23.31" pos="42.39" lane="1_1" slope="0.00" acceleration="-0.00"/>
    </timestep>
    <timestep time="17.00">
        <vehicle id="cav_flow.0" x="650.93" y="-1.88" angle="90.00" type="cav798" speed="42.56" pos="650.93" lane="1_2" slope="0.00" acceleration="0.00"/>
        <vehicle id="cav_flow.1" x="349.29" y="-9.38" angle="90.00" type="cav188" speed="25.24" pos="349.29" lane="1_0" slope="0.00" acceleration="-0.35"/>
        <vehicle id="cav_flow.2" x="248.20" y="-5.62" angle="90.00" type="cav593" speed="26.55" pos="248.20" lane="1_1" slope="0.00" acceleration="0.07"/>
        <vehicle id="cav_flow.3" x="164.15" y="-9.38" angle="90.00" type="cav387" speed="25.65" pos="164.15" lane="1_0" slope="0.00" acceleration="0.00"/>
        <vehicle id="cav_flow.4" x="71.66" y="-5.62" angle="90.00" type="cav238" speed="25.60" pos="71.66" lane="1_1" slope="0.00" acceleration="0.00"/>
        <vehicle id="hv_flow.0" x="390.91" y="-5.62" angle="90.00" type="hv844" speed="22.73" pos="390.91" lane="1_1" slope="0.00" acceleration="0.00"/>
        <vehicle id="hv_flow.1" x="481.13" y="-1.88" angle="90.00" type="hv667" speed="31.37" pos="481.13" lane="1_2" slope="0.00" acceleration="0.01"/>
        <vehicle id="hv_flow.2" x="421.50" y="-1.88" angle="90.00" type="hv297" speed="32.18" pos="421.50" lane="1_2" slope="0.00" acceleration="-0.03"/>
        <vehicle id="hv_flow.3" x="354.96" y="-1.88" angle="90.00" type="hv653" speed="30.46" pos="354.96" lane="1_2" slope="0.00" acceleration="0.06"/>
        <vehicle id="hv_flow.4" x="312.42" y="-1.88" angle="90.00" type="hv726" speed="30.81" pos="312.42" lane="1_2" slope="0.00" acceleration="0.00"/>
        <vehicle id="hv_flow.5" x="255.78" y="-1.88" angle="90.00" type="hv480" speed="30.64" pos="255.78" lane="1_2" slope="0.00" acceleration="-0.02"/>
        <vehicle id="hv_flow.6" x="180.15" y="-5.62" angle="90.00" type="hv333" speed="27.83" pos="180.15" lane="1_1" slope="0.00" acceleration="-0.04"/>
        <vehicle id="hv_flow.7" x="149.19" y="-1.88" angle="90.00" type="hv556" speed="31.96" pos="149.19" lane="1_2" slope="0.00" acceleration="-0.21"/>
        <vehicle id="hv_flow.8" x="65.70" y="-1.88" angle="90.00" type="hv602" speed="23.34" pos="65.70" lane="1_2" slope="0.00" acceleration="0.33"/>
        <vehicle id="hv_flow.9" x="25.73" y="-1.88" angle="90.00" type="hv134" speed="25.66" pos="25.73" lane="1_2" slope="0.00" acceleration="-1.50"/>
    </timestep>
    <timestep time="18.00">
        <vehicle id="cav_flow.0" x="693.49" y="-1.88" angle="90.00" type="cav798" speed="42.56" pos="693.49" lane="1_2" slope="0.00" acceleration="0.00"/>
        <vehicle id="cav_flow.1" x="374.35" y="-9.38" angle="90.00" type="cav188" speed="24.92" pos="374.35" lane="1_0" slope="0.00" acceleration="-0.31"/>
        <vehicle id="cav_flow.2" x="274.78" y="-5.62" angle="90.00" type="cav593" speed="26.60" pos="274.78" lane="1_1" slope="0.00" acceleration="0.05"/>
        <vehicle id="cav_flow.3" x="189.80" y="-9.38" angle="90.00" type="cav387" speed="25.65" pos="189.80" lane="1_0" slope="0.00" acceleration="0.00"/>
        <vehicle id="cav_flow.4" x="98.08" y="-5.62" angle="90.00" type="cav238" speed="27.09" pos="98.08" lane="1_1" slope="0.00" acceleration="1.49"/>
        <vehicle id="cav_flow.5" x="5.10" y="-9.38" angle="90.00" type="cav309" speed="29.09" pos="5.10" lane="1_0" slope="0.00" acceleration="0.00"/>
        <vehicle id="hv_flow.0" x="413.64" y="-5.62" angle="90.00" type="hv844" speed="22.73" pos="413.64" lane="1_1" slope="0.00" acceleration="0.00"/>
        <vehicle id="hv_flow.1" x="512.50" y="-1.88" angle="90.00" type="hv667" speed="31.38" pos="512.50" lane="1_2" slope="0.00" acceleration="0.01"/>
        <vehicle id="hv_flow.10" x="5.10" y="-5.62" angle="90.00" type="hv446" speed="26.31" pos="5.10" lane="1_1" slope="0.00" acceleration="0.00"/>
        <vehicle id="hv_flow.2" x="453.66" y="-1.88" angle="90.00" type="hv297" speed="32.15" pos="453.66" lane="1_2" slope="0.00" acceleration="-0.04"/>
        <vehicle id="hv_flow.3" x="385.44" y="-1.88" angle="90.00" type="hv653" speed="30.51" pos="385.44" lane="1_2" slope="0.00" acceleration="0.05"/>
        <vehicle id="hv_flow.4" x="343.23" y="-1.88" angle="90.00" type="hv726" speed="30.81" pos="343.23" lane="1_2" slope="0.00" acceleration="0.00"/>
        <vehicle id="hv_flow.5" x="286.41" y="-1.88" angle="90.00" type="hv480" speed="30.62" pos="286.41" lane="1_2" slope="0.00" acceleration="-0.01"/>
        <vehicle id="hv_flow.6" x="207.97" y="-5.62" angle="90.00" type="hv333" speed="27.80" pos="207.97" lane="1_1" slope="0.00" acceleration="-0.03"/>
        <vehicle id="hv_flow.7" x="181.04" y="-1.88" angle="90.00" type="hv556" speed="31.78" pos="181.04" lane="1_2" slope="0.00" acceleration="-0.15"/>
        <vehicle id="hv_flow.8" x="89.21" y="-1.88" angle="90.00" type="hv602" speed="23.64" pos="89.21" lane="1_2" slope="0.00" acceleration="0.28"/>
        <vehicle id="hv_flow.9" x="50.80" y="-1.88" angle="90.00" type="hv134" speed="24.71" pos="50.80" lane="1_2" slope="0.00" acceleration="-0.62"/>
    </timestep>
    <timestep time="19.00">
        <vehicle id="cav_flow.0" x="736.05" y="-1.88" angle="90.00" type="cav798" speed="42.56" pos="736.05" lane="1_2" slope="0.00" acceleration="0.00"/>
        <vehicle id="cav_flow.1" x="399.10" y="-9.38" angle="90.00" type="cav188" speed="24.63" pos="399.10" lane="1_0" slope="0.00" acceleration="-0.27"/>
        <vehicle id="cav_flow.2" x="301.41" y="-5.62" angle="90.00" type="cav593" speed="26.64" pos="301.41" lane="1_1" slope="0.00" acceleration="0.03"/>
        <vehicle id="cav_flow.3" x="215.45" y="-9.38" angle="90.00" type="cav387" speed="25.65" pos="215.45" lane="1_0" slope="0.00" acceleration="0.00"/>
        <vehicle id="cav_flow.4" x="125.95" y="-5.62" angle="90.00" type="cav238" speed="28.47" pos="125.95" lane="1_1" slope="0.00" acceleration="1.18"/>
        <vehicle id="cav_flow.5" x="34.19" y="-9.38" angle="90.00" type="cav309" speed="29.09" pos="34.19" lane="1_0" slope="0.00" acceleration="0.00"/>
        <vehicle id="hv_flow.0" x="436.37" y="-5.62" angle="90.00" type="hv844" speed="22.73" pos="436.37" lane="1_1" slope="0.00" acceleration="0.00"/>
        <vehicle id="hv_flow.1" x="543.88" y="-1.88" angle="90.00" type="hv667" speed="31.39" pos="543.88" lane="1_2" slope="0.00" acceleration="0.01"/>
        <vehicle id="hv_flow.10" x="31.06" y="-5.62" angle="90.00" type="hv446" speed="25.64" pos="31.06" lane="1_1" slope="0.00" acceleration="-0.65"/>
        <vehicle id="hv_flow.2" x="485.78" y="-1.88" angle="90.00" type="hv297" speed="32.11" pos="485.78" lane="1_2" slope="0.00" acceleration="-0.04"/>
        <vehicle id="hv_flow.3" x="415.98" y="-1.88" angle="90.00" type="hv653" speed="30.55" pos="415.98" lane="1_2" slope="0.00" acceleration="0.04"/>
        <vehicle id="hv_flow.4" x="374.04" y="-1.88" angle="90.00" type="hv726" speed="30.81" pos="374.04" lane="1_2" slope="0.00" acceleration="-0.00"/>
        <vehicle id="hv_flow.5" x="317.03" y="-1.88" angle="90.00" type="hv480" speed="30.62" pos="317.03" lane="1_2" slope="0.00" acceleration="0.00"/>